                         Program Version 5.0.1 -  RELEASE  -
|  1> ! TightSCF              # Strict convergence criteria
|  2> ! def2-SVP              # Basis set
|  3> ! MoRead
|  4>
|  5> %MoInp "init-orbs.gbw"
|  6>
|  7> %casscf                 # Electronic structure method: Complete Active Space Self-Consistent Field
|  8>   nel 3                 # Number of electrons in the active space
|  9>   norb 5                # Number of orbitals in the active space
| 10>   mult 4,2              # Spin multiplicities for a state-averaged calculation
| 11>   nroots 10,40          # Number of excited states for each multiplicity
| 12>   ActOrbs CanonOrbs     # The active orbitals (d-orbitals) will be ordered by their energy
| 13> end
| 14>
| 15> # Load molecular geometry from file `Cr_tetrahedral.xyz`
| 16> # System has charge 3 and spin multiplicity 4
| 17> * xyzfile 3 4 Cr_octahedral.xyz
| 18>
| 19>                          ****END OF INPUT****

CARTESIAN COORDINATES (ANGSTROEM)
---------------------------------
  O      0.043505   -0.012870    2.092867
  Cr     0.000002    0.000355   -0.000356
  O      0.174571    0.017884   -2.086883
  O      2.092595    0.067849    0.066054
  O     -2.092590   -0.066054   -0.067850
  O     -0.174570    2.086883   -0.017889
  O     -0.043504   -2.092867    0.012874
  H     -0.354587    0.528001   -2.707167
  H      0.724730   -0.559775   -2.624051
  H      0.354537    2.707163   -0.528063
  H     -0.724674    2.624055    0.559817
  H      2.685036    0.376616   -0.625013
  H      2.659668   -0.203479    0.793177
  H     -0.491204   -0.557531    2.678007
  H      0.520257    0.596617    2.663952
  H      0.491152   -2.678007    0.557589
  H     -0.520198   -2.663954   -0.596657
  H     -2.685035    0.625045   -0.376539
  H     -2.659659   -0.793210    0.203399

 Total Charge           Charge          ....    3
 Multiplicity           Mult            ....    4
 Number of Electrons    NEL             ....   81
 Basis Dimension        Dim             ....  175

ORBITAL ENERGIES
----------------

  NO   OCC          E(Eh)            E(eV)
   0   2.0000    -221.462256     -6026.2943
   1   2.0000     -27.305617      -743.0236
   2   2.0000     -23.242396      -632.4578
   3   2.0000     -23.242292      -632.4549
   4   2.0000     -23.242284      -632.4547
   5   2.0000     -21.108222      -574.3839
   6   2.0000     -21.108203      -574.3834
   7   2.0000     -21.108192      -574.3831
   8   2.0000     -21.108157      -574.3821
   9   2.0000     -21.105678      -574.3147
  10   2.0000     -21.105666      -574.3144
  11   2.0000      -4.251307      -115.6839
  12   2.0000      -2.992359       -81.4262
  13   2.0000      -2.991568       -81.4047
  14   2.0000      -2.991241       -81.3958
  15   2.0000      -1.886669       -51.3389
  16   2.0000      -1.876374       -51.0587
  17   2.0000      -1.876023       -51.0492
  18   2.0000      -1.875989       -51.0482
  19   2.0000      -1.873354       -50.9766
  20   2.0000      -1.873058       -50.9685
  21   2.0000      -1.268249       -34.5108
  22   2.0000      -1.264532       -34.4097
  23   2.0000      -1.261805       -34.3355
  24   2.0000      -1.257514       -34.2187
  25   2.0000      -1.255484       -34.1635
  26   2.0000      -1.248258       -33.9668
  27   2.0000      -1.225709       -33.3532
  28   2.0000      -1.192513       -32.4499
  29   2.0000      -1.190254       -32.3885
  30   2.0000      -1.169250       -31.8169
  31   2.0000      -1.168702       -31.8020
  32   2.0000      -1.166936       -31.7539
  33   2.0000      -1.077282       -29.3143
  34   2.0000      -1.073926       -29.2230
  35   2.0000      -1.072084       -29.1729
  36   2.0000      -1.051290       -28.6071
  37   2.0000      -1.051137       -28.6029
  38   2.0000      -1.045363       -28.4458
  39   0.6000      -0.684701       -18.6317
  40   0.6000      -0.684009       -18.6128
  41   0.6000      -0.681372       -18.5411
  42   0.6000      -0.638922       -17.3859
  43   0.6000      -0.638637       -17.3782
  44   0.0000      -0.356272        -9.6947
  45   0.0000      -0.276589        -7.5264
  46   0.0000      -0.271995        -7.4014
  47   0.0000      -0.270432        -7.3588
  48   0.0000      -0.225300        -6.1307

MULLIKEN ATOMIC CHARGES AND SPIN DENSITIES
------------------------------------------
   0 O :   -0.391585    0.012277
   1 Cr:    1.738688    1.914553
   2 O :   -0.391620    0.012269
   3 O :   -0.387364    0.012320
   4 O :   -0.387364    0.012320
   5 O :   -0.391619    0.012269
   6 O :   -0.391584    0.012277
   7 H :    0.301499    0.000974
   8 H :    0.300622    0.000981
   9 H :    0.301498    0.000974
  10 H :    0.300622    0.000981
  11 H :    0.298473    0.000973
  12 H :    0.298528    0.000975
  13 H :    0.301442    0.000973
  14 H :    0.300660    0.000983
  15 H :    0.301442    0.000973
  16 H :    0.300660    0.000983
  17 H :    0.298473    0.000973
  18 H :    0.298528    0.000975
Sum of atomic charges       :    3.0000000

LOEWDIN ATOMIC CHARGES AND SPIN DENSITIES
-----------------------------------------
   0 O :    0.020663    0.014611
   1 Cr:    0.926631    1.898275
   2 O :    0.020595    0.014602
   3 O :    0.021784    0.014630
   4 O :    0.021784    0.014630
   5 O :    0.020595    0.014602
   6 O :    0.020663    0.014611
   7 H :    0.163223    0.001170
   8 H :    0.162496    0.001174
   9 H :    0.163223    0.001170
  10 H :    0.162495    0.001174
  11 H :    0.161091    0.001164
  12 H :    0.161137    0.001165
  13 H :    0.163172    0.001170
  14 H :    0.162525    0.001175
  15 H :    0.163171    0.001170
  16 H :    0.162525    0.001175
  17 H :    0.161091    0.001164
  18 H :    0.161137    0.001165

  Mayer bond orders larger than 0.100000
B(  0-O ,  1-Cr) :   0.3590 B(  0-O , 13-H ) :   0.9113 B(  0-O , 14-H ) :   0.9118
B(  1-Cr,  2-O ) :   0.3590 B(  1-Cr,  3-O ) :   0.3608 B(  1-Cr,  4-O ) :   0.3608
B(  1-Cr,  5-O ) :   0.3590 B(  1-Cr,  6-O ) :   0.3590 B(  2-O ,  7-H ) :   0.9112
B(  2-O ,  8-H ) :   0.9118 B(  3-O , 11-H ) :   0.9130 B(  3-O , 12-H ) :   0.9130
B(  4-O , 17-H ) :   0.9130 B(  4-O , 18-H ) :   0.9130 B(  5-O ,  9-H ) :   0.9112
B(  5-O , 10-H ) :   0.9118 B(  6-O , 15-H ) :   0.9113 B(  6-O , 16-H ) :   0.9118

FINAL SINGLE POINT ENERGY     -1497.938505218812

DIPOLE MOMENT
-------------
                                X             Y             Z
Electronic contribution:      0.00000       0.00163      -0.00163
Nuclear contribution   :      0.00000      -0.00145       0.00145
                        -----------------------------------------
Total Dipole Moment    :      0.00001       0.00018      -0.00018
                        -----------------------------------------
Magnitude (a.u.)       :      0.00026
Magnitude (Debye)      :      0.00066

Rotational constants in cm-1:     0.049443     0.049266     0.048743
Rotational constants in MHz :  1482.265466  1476.946025  1461.285970

                             ****ORCA TERMINATED NORMALLY****
TOTAL RUN TIME: 0 days 0 hours 0 minutes 26 seconds 901 msec
